+ 2 2 1 tcp 40 ------- 1 2.0 5.0 0 0
- 2 2 1 tcp 40 ------- 1 2.0 5.0 0 0
r 2.004032 2 1 tcp 40 ------- 1 2.0 5.0 0 0
+ 2.004032 1 4 tcp 40 ------- 1 2.0 5.0 0 0
- 2.004032 1 4 tcp 40 ------- 1 2.0 5.0 0 0
r 2.014139 1 4 tcp 40 ------- 1 2.0 5.0 0 0
+ 2.014139 4 5 tcp 40 ------- 1 2.0 5.0 0 0
- 2.014139 4 5 tcp 40 ------- 1 2.0 5.0 0 0
r 2.024219 4 5 tcp 40 ------- 1 2.0 5.0 0 0
+ 2.024219 5 4 ack 40 ------- 1 5.0 2.0 0 1
- 2.024219 5 4 ack 40 ------- 1 5.0 2.0 0 1
r 2.034299 5 4 ack 40 ------- 1 5.0 2.0 0 1
+ 2.034299 4 1 ack 40 ------- 1 5.0 2.0 0 1
- 2.034299 4 1 ack 40 ------- 1 5.0 2.0 0 1
r 2.044405 4 1 ack 40 ------- 1 5.0 2.0 0 1
+ 2.044405 1 2 ack 40 ------- 1 5.0 2.0 0 1
- 2.044405 1 2 ack 40 ------- 1 5.0 2.0 0 1
r 2.048437 1 2 ack 40 ------- 1 5.0 2.0 0 1
+ 2.048437 2 1 tcp 1040 ------- 1 2.0 5.0 1 2
- 2.048437 2 1 tcp 1040 ------- 1 2.0 5.0 1 2
+ 2.048437 2 1 tcp 1040 ------- 1 2.0 5.0 2 3
- 2.049269 2 1 tcp 1040 ------- 1 2.0 5.0 2 3
r 2.053269 2 1 tcp 1040 ------- 1 2.0 5.0 1 2
+ 2.053269 1 4 tcp 1040 ------- 1 2.0 5.0 1 2
- 2.053269 1 4 tcp 1040 ------- 1 2.0 5.0 1 2
r 2.054101 2 1 tcp 1040 ------- 1 2.0 5.0 2 3
+ 2.054101 1 4 tcp 1040 ------- 1 2.0 5.0 2 3
- 2.056043 1 4 tcp 1040 ------- 1 2.0 5.0 2 3
r 2.066043 1 4 tcp 1040 ------- 1 2.0 5.0 1 2
+ 2.066043 4 5 tcp 1040 ------- 1 2.0 5.0 1 2
- 2.066043 4 5 tcp 1040 ------- 1 2.0 5.0 1 2
r 2.068816 1 4 tcp 1040 ------- 1 2.0 5.0 2 3
+ 2.068816 4 5 tcp 1040 ------- 1 2.0 5.0 2 3
- 2.068816 4 5 tcp 1040 ------- 1 2.0 5.0 2 3
r 2.078123 4 5 tcp 1040 ------- 1 2.0 5.0 1 2
+ 2.078123 5 4 ack 40 ------- 1 5.0 2.0 1 4
- 2.078123 5 4 ack 40 ------- 1 5.0 2.0 1 4
r 2.080896 4 5 tcp 1040 ------- 1 2.0 5.0 2 3
+ 2.080896 5 4 ack 40 ------- 1 5.0 2.0 2 5
- 2.080896 5 4 ack 40 ------- 1 5.0 2.0 2 5
r 2.088203 5 4 ack 40 ------- 1 5.0 2.0 1 4
+ 2.088203 4 1 ack 40 ------- 1 5.0 2.0 1 4
- 2.088203 4 1 ack 40 ------- 1 5.0 2.0 1 4
r 2.090976 5 4 ack 40 ------- 1 5.0 2.0 2 5
+ 2.090976 4 1 ack 40 ------- 1 5.0 2.0 2 5
- 2.090976 4 1 ack 40 ------- 1 5.0 2.0 2 5
r 2.098309 4 1 ack 40 ------- 1 5.0 2.0 1 4
+ 2.098309 1 2 ack 40 ------- 1 5.0 2.0 1 4
- 2.098309 1 2 ack 40 ------- 1 5.0 2.0 1 4
r 2.101083 4 1 ack 40 ------- 1 5.0 2.0 2 5
+ 2.101083 1 2 ack 40 ------- 1 5.0 2.0 2 5
- 2.101083 1 2 ack 40 ------- 1 5.0 2.0 2 5
r 2.102341 1 2 ack 40 ------- 1 5.0 2.0 1 4
+ 2.102341 2 1 tcp 1040 ------- 1 2.0 5.0 3 6
- 2.102341 2 1 tcp 1040 ------- 1 2.0 5.0 3 6
+ 2.102341 2 1 tcp 1040 ------- 1 2.0 5.0 4 7
- 2.103173 2 1 tcp 1040 ------- 1 2.0 5.0 4 7
r 2.105115 1 2 ack 40 ------- 1 5.0 2.0 2 5
+ 2.105115 2 1 tcp 1040 ------- 1 2.0 5.0 5 8
- 2.105115 2 1 tcp 1040 ------- 1 2.0 5.0 5 8
+ 2.105115 2 1 tcp 1040 ------- 1 2.0 5.0 6 9
- 2.105947 2 1 tcp 1040 ------- 1 2.0 5.0 6 9
r 2.107173 2 1 tcp 1040 ------- 1 2.0 5.0 3 6
+ 2.107173 1 4 tcp 1040 ------- 1 2.0 5.0 3 6
- 2.107173 1 4 tcp 1040 ------- 1 2.0 5.0 3 6
r 2.108005 2 1 tcp 1040 ------- 1 2.0 5.0 4 7
+ 2.108005 1 4 tcp 1040 ------- 1 2.0 5.0 4 7
r 2.109947 2 1 tcp 1040 ------- 1 2.0 5.0 5 8
+ 2.109947 1 4 tcp 1040 ------- 1 2.0 5.0 5 8
- 2.109947 1 4 tcp 1040 ------- 1 2.0 5.0 4 7
r 2.110779 2 1 tcp 1040 ------- 1 2.0 5.0 6 9
+ 2.110779 1 4 tcp 1040 ------- 1 2.0 5.0 6 9
- 2.11272 1 4 tcp 1040 ------- 1 2.0 5.0 5 8
- 2.115493 1 4 tcp 1040 ------- 1 2.0 5.0 6 9
r 2.119947 1 4 tcp 1040 ------- 1 2.0 5.0 3 6
+ 2.119947 4 5 tcp 1040 ------- 1 2.0 5.0 3 6
- 2.119947 4 5 tcp 1040 ------- 1 2.0 5.0 3 6
r 2.12272 1 4 tcp 1040 ------- 1 2.0 5.0 4 7
+ 2.12272 4 5 tcp 1040 ------- 1 2.0 5.0 4 7
- 2.12272 4 5 tcp 1040 ------- 1 2.0 5.0 4 7
r 2.125493 1 4 tcp 1040 ------- 1 2.0 5.0 5 8
+ 2.125493 4 5 tcp 1040 ------- 1 2.0 5.0 5 8
- 2.125493 4 5 tcp 1040 ------- 1 2.0 5.0 5 8
r 2.128267 1 4 tcp 1040 ------- 1 2.0 5.0 6 9
+ 2.128267 4 5 tcp 1040 ------- 1 2.0 5.0 6 9
- 2.128267 4 5 tcp 1040 ------- 1 2.0 5.0 6 9
r 2.132027 4 5 tcp 1040 ------- 1 2.0 5.0 3 6
+ 2.132027 5 4 ack 40 ------- 1 5.0 2.0 3 10
- 2.132027 5 4 ack 40 ------- 1 5.0 2.0 3 10
r 2.1348 4 5 tcp 1040 ------- 1 2.0 5.0 4 7
+ 2.1348 5 4 ack 40 ------- 1 5.0 2.0 4 11
- 2.1348 5 4 ack 40 ------- 1 5.0 2.0 4 11
r 2.137573 4 5 tcp 1040 ------- 1 2.0 5.0 5 8
+ 2.137573 5 4 ack 40 ------- 1 5.0 2.0 5 12
- 2.137573 5 4 ack 40 ------- 1 5.0 2.0 5 12
r 2.140347 4 5 tcp 1040 ------- 1 2.0 5.0 6 9
+ 2.140347 5 4 ack 40 ------- 1 5.0 2.0 6 13
- 2.140347 5 4 ack 40 ------- 1 5.0 2.0 6 13
r 2.142107 5 4 ack 40 ------- 1 5.0 2.0 3 10
+ 2.142107 4 1 ack 40 ------- 1 5.0 2.0 3 10
- 2.142107 4 1 ack 40 ------- 1 5.0 2.0 3 10
r 2.14488 5 4 ack 40 ------- 1 5.0 2.0 4 11
+ 2.14488 4 1 ack 40 ------- 1 5.0 2.0 4 11
- 2.14488 4 1 ack 40 ------- 1 5.0 2.0 4 11
r 2.147653 5 4 ack 40 ------- 1 5.0 2.0 5 12
+ 2.147653 4 1 ack 40 ------- 1 5.0 2.0 5 12
- 2.147653 4 1 ack 40 ------- 1 5.0 2.0 5 12
r 2.150427 5 4 ack 40 ------- 1 5.0 2.0 6 13
+ 2.150427 4 1 ack 40 ------- 1 5.0 2.0 6 13
- 2.150427 4 1 ack 40 ------- 1 5.0 2.0 6 13
r 2.152213 4 1 ack 40 ------- 1 5.0 2.0 3 10
+ 2.152213 1 2 ack 40 ------- 1 5.0 2.0 3 10
- 2.152213 1 2 ack 40 ------- 1 5.0 2.0 3 10
r 2.154987 4 1 ack 40 ------- 1 5.0 2.0 4 11
+ 2.154987 1 2 ack 40 ------- 1 5.0 2.0 4 11
- 2.154987 1 2 ack 40 ------- 1 5.0 2.0 4 11
r 2.156245 1 2 ack 40 ------- 1 5.0 2.0 3 10
+ 2.156245 2 1 tcp 1040 ------- 1 2.0 5.0 7 14
- 2.156245 2 1 tcp 1040 ------- 1 2.0 5.0 7 14
+ 2.156245 2 1 tcp 1040 ------- 1 2.0 5.0 8 15
- 2.157077 2 1 tcp 1040 ------- 1 2.0 5.0 8 15
r 2.15776 4 1 ack 40 ------- 1 5.0 2.0 5 12
+ 2.15776 1 2 ack 40 ------- 1 5.0 2.0 5 12
- 2.15776 1 2 ack 40 ------- 1 5.0 2.0 5 12
r 2.159019 1 2 ack 40 ------- 1 5.0 2.0 4 11
+ 2.159019 2 1 tcp 1040 ------- 1 2.0 5.0 9 16
- 2.159019 2 1 tcp 1040 ------- 1 2.0 5.0 9 16
+ 2.159019 2 1 tcp 1040 ------- 1 2.0 5.0 10 17
- 2.159851 2 1 tcp 1040 ------- 1 2.0 5.0 10 17
r 2.160533 4 1 ack 40 ------- 1 5.0 2.0 6 13
+ 2.160533 1 2 ack 40 ------- 1 5.0 2.0 6 13
- 2.160533 1 2 ack 40 ------- 1 5.0 2.0 6 13
r 2.161077 2 1 tcp 1040 ------- 1 2.0 5.0 7 14
+ 2.161077 1 4 tcp 1040 ------- 1 2.0 5.0 7 14
- 2.161077 1 4 tcp 1040 ------- 1 2.0 5.0 7 14
r 2.161792 1 2 ack 40 ------- 1 5.0 2.0 5 12
+ 2.161792 2 1 tcp 1040 ------- 1 2.0 5.0 11 18
- 2.161792 2 1 tcp 1040 ------- 1 2.0 5.0 11 18
+ 2.161792 2 1 tcp 1040 ------- 1 2.0 5.0 12 19
r 2.161909 2 1 tcp 1040 ------- 1 2.0 5.0 8 15
+ 2.161909 1 4 tcp 1040 ------- 1 2.0 5.0 8 15
- 2.162624 2 1 tcp 1040 ------- 1 2.0 5.0 12 19
r 2.163851 2 1 tcp 1040 ------- 1 2.0 5.0 9 16
+ 2.163851 1 4 tcp 1040 ------- 1 2.0 5.0 9 16
- 2.163851 1 4 tcp 1040 ------- 1 2.0 5.0 8 15
r 2.164565 1 2 ack 40 ------- 1 5.0 2.0 6 13
+ 2.164565 2 1 tcp 1040 ------- 1 2.0 5.0 13 20
- 2.164565 2 1 tcp 1040 ------- 1 2.0 5.0 13 20
+ 2.164565 2 1 tcp 1040 ------- 1 2.0 5.0 14 21
r 2.164683 2 1 tcp 1040 ------- 1 2.0 5.0 10 17
+ 2.164683 1 4 tcp 1040 ------- 1 2.0 5.0 10 17
- 2.165397 2 1 tcp 1040 ------- 1 2.0 5.0 14 21
r 2.166624 2 1 tcp 1040 ------- 1 2.0 5.0 11 18
+ 2.166624 1 4 tcp 1040 ------- 1 2.0 5.0 11 18
- 2.166624 1 4 tcp 1040 ------- 1 2.0 5.0 9 16
r 2.167456 2 1 tcp 1040 ------- 1 2.0 5.0 12 19
+ 2.167456 1 4 tcp 1040 ------- 1 2.0 5.0 12 19
r 2.169397 2 1 tcp 1040 ------- 1 2.0 5.0 13 20
+ 2.169397 1 4 tcp 1040 ------- 1 2.0 5.0 13 20
- 2.169397 1 4 tcp 1040 ------- 1 2.0 5.0 10 17
r 2.170229 2 1 tcp 1040 ------- 1 2.0 5.0 14 21
+ 2.170229 1 4 tcp 1040 ------- 1 2.0 5.0 14 21
- 2.172171 1 4 tcp 1040 ------- 1 2.0 5.0 11 18
r 2.173851 1 4 tcp 1040 ------- 1 2.0 5.0 7 14
+ 2.173851 4 5 tcp 1040 ------- 1 2.0 5.0 7 14
- 2.173851 4 5 tcp 1040 ------- 1 2.0 5.0 7 14
- 2.174944 1 4 tcp 1040 ------- 1 2.0 5.0 12 19
r 2.176624 1 4 tcp 1040 ------- 1 2.0 5.0 8 15
+ 2.176624 4 5 tcp 1040 ------- 1 2.0 5.0 8 15
- 2.176624 4 5 tcp 1040 ------- 1 2.0 5.0 8 15
- 2.177717 1 4 tcp 1040 ------- 1 2.0 5.0 13 20
r 2.179397 1 4 tcp 1040 ------- 1 2.0 5.0 9 16
+ 2.179397 4 5 tcp 1040 ------- 1 2.0 5.0 9 16
- 2.179397 4 5 tcp 1040 ------- 1 2.0 5.0 9 16
- 2.180491 1 4 tcp 1040 ------- 1 2.0 5.0 14 21
r 2.182171 1 4 tcp 1040 ------- 1 2.0 5.0 10 17
+ 2.182171 4 5 tcp 1040 ------- 1 2.0 5.0 10 17
- 2.182171 4 5 tcp 1040 ------- 1 2.0 5.0 10 17
r 2.184944 1 4 tcp 1040 ------- 1 2.0 5.0 11 18
+ 2.184944 4 5 tcp 1040 ------- 1 2.0 5.0 11 18
- 2.184944 4 5 tcp 1040 ------- 1 2.0 5.0 11 18
r 2.185931 4 5 tcp 1040 ------- 1 2.0 5.0 7 14
+ 2.185931 5 4 ack 40 ------- 1 5.0 2.0 7 22
- 2.185931 5 4 ack 40 ------- 1 5.0 2.0 7 22
r 2.187717 1 4 tcp 1040 ------- 1 2.0 5.0 12 19
+ 2.187717 4 5 tcp 1040 ------- 1 2.0 5.0 12 19
- 2.187717 4 5 tcp 1040 ------- 1 2.0 5.0 12 19
r 2.188704 4 5 tcp 1040 ------- 1 2.0 5.0 8 15
+ 2.188704 5 4 ack 40 ------- 1 5.0 2.0 8 23
- 2.188704 5 4 ack 40 ------- 1 5.0 2.0 8 23
r 2.190491 1 4 tcp 1040 ------- 1 2.0 5.0 13 20
+ 2.190491 4 5 tcp 1040 ------- 1 2.0 5.0 13 20
- 2.190491 4 5 tcp 1040 ------- 1 2.0 5.0 13 20
r 2.191477 4 5 tcp 1040 ------- 1 2.0 5.0 9 16
+ 2.191477 5 4 ack 40 ------- 1 5.0 2.0 9 24
- 2.191477 5 4 ack 40 ------- 1 5.0 2.0 9 24
r 2.193264 1 4 tcp 1040 ------- 1 2.0 5.0 14 21
+ 2.193264 4 5 tcp 1040 ------- 1 2.0 5.0 14 21
- 2.193264 4 5 tcp 1040 ------- 1 2.0 5.0 14 21
r 2.194251 4 5 tcp 1040 ------- 1 2.0 5.0 10 17
+ 2.194251 5 4 ack 40 ------- 1 5.0 2.0 10 25
- 2.194251 5 4 ack 40 ------- 1 5.0 2.0 10 25
r 2.196011 5 4 ack 40 ------- 1 5.0 2.0 7 22
+ 2.196011 4 1 ack 40 ------- 1 5.0 2.0 7 22
- 2.196011 4 1 ack 40 ------- 1 5.0 2.0 7 22
r 2.197024 4 5 tcp 1040 ------- 1 2.0 5.0 11 18
+ 2.197024 5 4 ack 40 ------- 1 5.0 2.0 11 26
- 2.197024 5 4 ack 40 ------- 1 5.0 2.0 11 26
r 2.198784 5 4 ack 40 ------- 1 5.0 2.0 8 23
+ 2.198784 4 1 ack 40 ------- 1 5.0 2.0 8 23
- 2.198784 4 1 ack 40 ------- 1 5.0 2.0 8 23
r 2.199797 4 5 tcp 1040 ------- 1 2.0 5.0 12 19
+ 2.199797 5 4 ack 40 ------- 1 5.0 2.0 12 27
- 2.199797 5 4 ack 40 ------- 1 5.0 2.0 12 27
r 2.201557 5 4 ack 40 ------- 1 5.0 2.0 9 24
+ 2.201557 4 1 ack 40 ------- 1 5.0 2.0 9 24
- 2.201557 4 1 ack 40 ------- 1 5.0 2.0 9 24
r 2.202571 4 5 tcp 1040 ------- 1 2.0 5.0 13 20
+ 2.202571 5 4 ack 40 ------- 1 5.0 2.0 13 28
- 2.202571 5 4 ack 40 ------- 1 5.0 2.0 13 28
r 2.204331 5 4 ack 40 ------- 1 5.0 2.0 10 25
+ 2.204331 4 1 ack 40 ------- 1 5.0 2.0 10 25
- 2.204331 4 1 ack 40 ------- 1 5.0 2.0 10 25
r 2.205344 4 5 tcp 1040 ------- 1 2.0 5.0 14 21
+ 2.205344 5 4 ack 40 ------- 1 5.0 2.0 14 29
- 2.205344 5 4 ack 40 ------- 1 5.0 2.0 14 29
r 2.206117 4 1 ack 40 ------- 1 5.0 2.0 7 22
+ 2.206117 1 2 ack 40 ------- 1 5.0 2.0 7 22
- 2.206117 1 2 ack 40 ------- 1 5.0 2.0 7 22
r 2.207104 5 4 ack 40 ------- 1 5.0 2.0 11 26
+ 2.207104 4 1 ack 40 ------- 1 5.0 2.0 11 26
- 2.207104 4 1 ack 40 ------- 1 5.0 2.0 11 26
r 2.208891 4 1 ack 40 ------- 1 5.0 2.0 8 23
+ 2.208891 1 2 ack 40 ------- 1 5.0 2.0 8 23
- 2.208891 1 2 ack 40 ------- 1 5.0 2.0 8 23
r 2.209877 5 4 ack 40 ------- 1 5.0 2.0 12 27
+ 2.209877 4 1 ack 40 ------- 1 5.0 2.0 12 27
- 2.209877 4 1 ack 40 ------- 1 5.0 2.0 12 27
r 2.210149 1 2 ack 40 ------- 1 5.0 2.0 7 22
+ 2.210149 2 1 tcp 1040 ------- 1 2.0 5.0 15 30
- 2.210149 2 1 tcp 1040 ------- 1 2.0 5.0 15 30
+ 2.210149 2 1 tcp 1040 ------- 1 2.0 5.0 16 31
- 2.210981 2 1 tcp 1040 ------- 1 2.0 5.0 16 31
r 2.211664 4 1 ack 40 ------- 1 5.0 2.0 9 24
+ 2.211664 1 2 ack 40 ------- 1 5.0 2.0 9 24
- 2.211664 1 2 ack 40 ------- 1 5.0 2.0 9 24
r 2.212651 5 4 ack 40 ------- 1 5.0 2.0 13 28
+ 2.212651 4 1 ack 40 ------- 1 5.0 2.0 13 28
- 2.212651 4 1 ack 40 ------- 1 5.0 2.0 13 28
r 2.212923 1 2 ack 40 ------- 1 5.0 2.0 8 23
+ 2.212923 2 1 tcp 1040 ------- 1 2.0 5.0 17 32
- 2.212923 2 1 tcp 1040 ------- 1 2.0 5.0 17 32
+ 2.212923 2 1 tcp 1040 ------- 1 2.0 5.0 18 33
- 2.213755 2 1 tcp 1040 ------- 1 2.0 5.0 18 33
r 2.214437 4 1 ack 40 ------- 1 5.0 2.0 10 25
+ 2.214437 1 2 ack 40 ------- 1 5.0 2.0 10 25
- 2.214437 1 2 ack 40 ------- 1 5.0 2.0 10 25
r 2.214981 2 1 tcp 1040 ------- 1 2.0 5.0 15 30
+ 2.214981 1 4 tcp 1040 ------- 1 2.0 5.0 15 30
- 2.214981 1 4 tcp 1040 ------- 1 2.0 5.0 15 30
r 2.215424 5 4 ack 40 ------- 1 5.0 2.0 14 29
+ 2.215424 4 1 ack 40 ------- 1 5.0 2.0 14 29
- 2.215424 4 1 ack 40 ------- 1 5.0 2.0 14 29
r 2.215696 1 2 ack 40 ------- 1 5.0 2.0 9 24
+ 2.215696 2 1 tcp 1040 ------- 1 2.0 5.0 19 34
- 2.215696 2 1 tcp 1040 ------- 1 2.0 5.0 19 34
+ 2.215696 2 1 tcp 1040 ------- 1 2.0 5.0 20 35
r 2.215813 2 1 tcp 1040 ------- 1 2.0 5.0 16 31
+ 2.215813 1 4 tcp 1040 ------- 1 2.0 5.0 16 31
- 2.216528 2 1 tcp 1040 ------- 1 2.0 5.0 20 35
r 2.217211 4 1 ack 40 ------- 1 5.0 2.0 11 26
+ 2.217211 1 2 ack 40 ------- 1 5.0 2.0 11 26
- 2.217211 1 2 ack 40 ------- 1 5.0 2.0 11 26
r 2.217755 2 1 tcp 1040 ------- 1 2.0 5.0 17 32
+ 2.217755 1 4 tcp 1040 ------- 1 2.0 5.0 17 32
- 2.217755 1 4 tcp 1040 ------- 1 2.0 5.0 16 31
r 2.218469 1 2 ack 40 ------- 1 5.0 2.0 10 25
+ 2.218469 2 1 tcp 1040 ------- 1 2.0 5.0 21 36
- 2.218469 2 1 tcp 1040 ------- 1 2.0 5.0 21 36
+ 2.218469 2 1 tcp 1040 ------- 1 2.0 5.0 22 37
r 2.218587 2 1 tcp 1040 ------- 1 2.0 5.0 18 33
+ 2.218587 1 4 tcp 1040 ------- 1 2.0 5.0 18 33
- 2.219301 2 1 tcp 1040 ------- 1 2.0 5.0 22 37
r 2.219984 4 1 ack 40 ------- 1 5.0 2.0 12 27
+ 2.219984 1 2 ack 40 ------- 1 5.0 2.0 12 27
- 2.219984 1 2 ack 40 ------- 1 5.0 2.0 12 27
r 2.220528 2 1 tcp 1040 ------- 1 2.0 5.0 19 34
+ 2.220528 1 4 tcp 1040 ------- 1 2.0 5.0 19 34
- 2.220528 1 4 tcp 1040 ------- 1 2.0 5.0 17 32
r 2.221243 1 2 ack 40 ------- 1 5.0 2.0 11 26
+ 2.221243 2 1 tcp 1040 ------- 1 2.0 5.0 23 38
- 2.221243 2 1 tcp 1040 ------- 1 2.0 5.0 23 38
+ 2.221243 2 1 tcp 1040 ------- 1 2.0 5.0 24 39
r 2.22136 2 1 tcp 1040 ------- 1 2.0 5.0 20 35
+ 2.22136 1 4 tcp 1040 ------- 1 2.0 5.0 20 35
- 2.222075 2 1 tcp 1040 ------- 1 2.0 5.0 24 39
r 2.222757 4 1 ack 40 ------- 1 5.0 2.0 13 28
+ 2.222757 1 2 ack 40 ------- 1 5.0 2.0 13 28
- 2.222757 1 2 ack 40 ------- 1 5.0 2.0 13 28
r 2.223301 2 1 tcp 1040 ------- 1 2.0 5.0 21 36
+ 2.223301 1 4 tcp 1040 ------- 1 2.0 5.0 21 36
- 2.223301 1 4 tcp 1040 ------- 1 2.0 5.0 18 33
r 2.224016 1 2 ack 40 ------- 1 5.0 2.0 12 27
+ 2.224016 2 1 tcp 1040 ------- 1 2.0 5.0 25 40
- 2.224016 2 1 tcp 1040 ------- 1 2.0 5.0 25 40
+ 2.224016 2 1 tcp 1040 ------- 1 2.0 5.0 26 41
r 2.224133 2 1 tcp 1040 ------- 1 2.0 5.0 22 37
+ 2.224133 1 4 tcp 1040 ------- 1 2.0 5.0 22 37
- 2.224848 2 1 tcp 1040 ------- 1 2.0 5.0 26 41
r 2.225531 4 1 ack 40 ------- 1 5.0 2.0 14 29
+ 2.225531 1 2 ack 40 ------- 1 5.0 2.0 14 29
- 2.225531 1 2 ack 40 ------- 1 5.0 2.0 14 29
r 2.226075 2 1 tcp 1040 ------- 1 2.0 5.0 23 38
+ 2.226075 1 4 tcp 1040 ------- 1 2.0 5.0 23 38
- 2.226075 1 4 tcp 1040 ------- 1 2.0 5.0 19 34
r 2.226789 1 2 ack 40 ------- 1 5.0 2.0 13 28
+ 2.226789 2 1 tcp 1040 ------- 1 2.0 5.0 27 42
- 2.226789 2 1 tcp 1040 ------- 1 2.0 5.0 27 42
+ 2.226789 2 1 tcp 1040 ------- 1 2.0 5.0 28 43
r 2.226907 2 1 tcp 1040 ------- 1 2.0 5.0 24 39
+ 2.226907 1 4 tcp 1040 ------- 1 2.0 5.0 24 39
- 2.227621 2 1 tcp 1040 ------- 1 2.0 5.0 28 43
r 2.227755 1 4 tcp 1040 ------- 1 2.0 5.0 15 30
+ 2.227755 4 5 tcp 1040 ------- 1 2.0 5.0 15 30
- 2.227755 4 5 tcp 1040 ------- 1 2.0 5.0 15 30
r 2.228848 2 1 tcp 1040 ------- 1 2.0 5.0 25 40
+ 2.228848 1 4 tcp 1040 ------- 1 2.0 5.0 25 40
- 2.228848 1 4 tcp 1040 ------- 1 2.0 5.0 20 35
r 2.229563 1 2 ack 40 ------- 1 5.0 2.0 14 29
+ 2.229563 2 1 tcp 1040 ------- 1 2.0 5.0 29 44
- 2.229563 2 1 tcp 1040 ------- 1 2.0 5.0 29 44
+ 2.229563 2 1 tcp 1040 ------- 1 2.0 5.0 30 45
r 2.22968 2 1 tcp 1040 ------- 1 2.0 5.0 26 41
+ 2.22968 1 4 tcp 1040 ------- 1 2.0 5.0 26 41
- 2.230395 2 1 tcp 1040 ------- 1 2.0 5.0 30 45
r 2.230528 1 4 tcp 1040 ------- 1 2.0 5.0 16 31
+ 2.230528 4 5 tcp 1040 ------- 1 2.0 5.0 16 31
- 2.230528 4 5 tcp 1040 ------- 1 2.0 5.0 16 31
r 2.231621 2 1 tcp 1040 ------- 1 2.0 5.0 27 42
+ 2.231621 1 4 tcp 1040 ------- 1 2.0 5.0 27 42
- 2.231621 1 4 tcp 1040 ------- 1 2.0 5.0 21 36
r 2.232453 2 1 tcp 1040 ------- 1 2.0 5.0 28 43
+ 2.232453 1 4 tcp 1040 ------- 1 2.0 5.0 28 43
r 2.233301 1 4 tcp 1040 ------- 1 2.0 5.0 17 32
+ 2.233301 4 5 tcp 1040 ------- 1 2.0 5.0 17 32
- 2.233301 4 5 tcp 1040 ------- 1 2.0 5.0 17 32
r 2.234395 2 1 tcp 1040 ------- 1 2.0 5.0 29 44
+ 2.234395 1 4 tcp 1040 ------- 1 2.0 5.0 29 44
- 2.234395 1 4 tcp 1040 ------- 1 2.0 5.0 22 37
r 2.235227 2 1 tcp 1040 ------- 1 2.0 5.0 30 45
+ 2.235227 1 4 tcp 1040 ------- 1 2.0 5.0 30 45
r 2.236075 1 4 tcp 1040 ------- 1 2.0 5.0 18 33
+ 2.236075 4 5 tcp 1040 ------- 1 2.0 5.0 18 33
- 2.236075 4 5 tcp 1040 ------- 1 2.0 5.0 18 33
- 2.237168 1 4 tcp 1040 ------- 1 2.0 5.0 23 38
r 2.238848 1 4 tcp 1040 ------- 1 2.0 5.0 19 34
+ 2.238848 4 5 tcp 1040 ------- 1 2.0 5.0 19 34
- 2.238848 4 5 tcp 1040 ------- 1 2.0 5.0 19 34
r 2.239835 4 5 tcp 1040 ------- 1 2.0 5.0 15 30
+ 2.239835 5 4 ack 40 ------- 1 5.0 2.0 15 46
- 2.239835 5 4 ack 40 ------- 1 5.0 2.0 15 46
- 2.239941 1 4 tcp 1040 ------- 1 2.0 5.0 24 39
r 2.241621 1 4 tcp 1040 ------- 1 2.0 5.0 20 35
+ 2.241621 4 5 tcp 1040 ------- 1 2.0 5.0 20 35
- 2.241621 4 5 tcp 1040 ------- 1 2.0 5.0 20 35
r 2.242608 4 5 tcp 1040 ------- 1 2.0 5.0 16 31
+ 2.242608 5 4 ack 40 ------- 1 5.0 2.0 16 47
- 2.242608 5 4 ack 40 ------- 1 5.0 2.0 16 47
- 2.242715 1 4 tcp 1040 ------- 1 2.0 5.0 25 40
r 2.244395 1 4 tcp 1040 ------- 1 2.0 5.0 21 36
+ 2.244395 4 5 tcp 1040 ------- 1 2.0 5.0 21 36
- 2.244395 4 5 tcp 1040 ------- 1 2.0 5.0 21 36
r 2.245381 4 5 tcp 1040 ------- 1 2.0 5.0 17 32
+ 2.245381 5 4 ack 40 ------- 1 5.0 2.0 17 48
- 2.245381 5 4 ack 40 ------- 1 5.0 2.0 17 48
- 2.245488 1 4 tcp 1040 ------- 1 2.0 5.0 26 41
r 2.247168 1 4 tcp 1040 ------- 1 2.0 5.0 22 37
+ 2.247168 4 5 tcp 1040 ------- 1 2.0 5.0 22 37
- 2.247168 4 5 tcp 1040 ------- 1 2.0 5.0 22 37
r 2.248155 4 5 tcp 1040 ------- 1 2.0 5.0 18 33
+ 2.248155 5 4 ack 40 ------- 1 5.0 2.0 18 49
- 2.248155 5 4 ack 40 ------- 1 5.0 2.0 18 49
- 2.248261 1 4 tcp 1040 ------- 1 2.0 5.0 27 42
r 2.249915 5 4 ack 40 ------- 1 5.0 2.0 15 46
+ 2.249915 4 1 ack 40 ------- 1 5.0 2.0 15 46
- 2.249915 4 1 ack 40 ------- 1 5.0 2.0 15 46
r 2.249941 1 4 tcp 1040 ------- 1 2.0 5.0 23 38
+ 2.249941 4 5 tcp 1040 ------- 1 2.0 5.0 23 38
- 2.249941 4 5 tcp 1040 ------- 1 2.0 5.0 23 38
r 2.250928 4 5 tcp 1040 ------- 1 2.0 5.0 19 34
+ 2.250928 5 4 ack 40 ------- 1 5.0 2.0 19 50
- 2.250928 5 4 ack 40 ------- 1 5.0 2.0 19 50
- 2.251035 1 4 tcp 1040 ------- 1 2.0 5.0 28 43
r 2.252688 5 4 ack 40 ------- 1 5.0 2.0 16 47
+ 2.252688 4 1 ack 40 ------- 1 5.0 2.0 16 47
- 2.252688 4 1 ack 40 ------- 1 5.0 2.0 16 47
r 2.252715 1 4 tcp 1040 ------- 1 2.0 5.0 24 39
+ 2.252715 4 5 tcp 1040 ------- 1 2.0 5.0 24 39
- 2.252715 4 5 tcp 1040 ------- 1 2.0 5.0 24 39
r 2.253701 4 5 tcp 1040 ------- 1 2.0 5.0 20 35
+ 2.253701 5 4 ack 40 ------- 1 5.0 2.0 20 51
- 2.253701 5 4 ack 40 ------- 1 5.0 2.0 20 51
- 2.253808 1 4 tcp 1040 ------- 1 2.0 5.0 29 44
r 2.255461 5 4 ack 40 ------- 1 5.0 2.0 17 48
+ 2.255461 4 1 ack 40 ------- 1 5.0 2.0 17 48
- 2.255461 4 1 ack 40 ------- 1 5.0 2.0 17 48
r 2.255488 1 4 tcp 1040 ------- 1 2.0 5.0 25 40
+ 2.255488 4 5 tcp 1040 ------- 1 2.0 5.0 25 40
- 2.255488 4 5 tcp 1040 ------- 1 2.0 5.0 25 40
r 2.256475 4 5 tcp 1040 ------- 1 2.0 5.0 21 36
+ 2.256475 5 4 ack 40 ------- 1 5.0 2.0 21 52
- 2.256475 5 4 ack 40 ------- 1 5.0 2.0 21 52
- 2.256581 1 4 tcp 1040 ------- 1 2.0 5.0 30 45
r 2.258235 5 4 ack 40 ------- 1 5.0 2.0 18 49
+ 2.258235 4 1 ack 40 ------- 1 5.0 2.0 18 49
- 2.258235 4 1 ack 40 ------- 1 5.0 2.0 18 49
r 2.258261 1 4 tcp 1040 ------- 1 2.0 5.0 26 41
+ 2.258261 4 5 tcp 1040 ------- 1 2.0 5.0 26 41
- 2.258261 4 5 tcp 1040 ------- 1 2.0 5.0 26 41
r 2.259248 4 5 tcp 1040 ------- 1 2.0 5.0 22 37
+ 2.259248 5 4 ack 40 ------- 1 5.0 2.0 22 53
- 2.259248 5 4 ack 40 ------- 1 5.0 2.0 22 53
r 2.260021 4 1 ack 40 ------- 1 5.0 2.0 15 46
+ 2.260021 1 2 ack 40 ------- 1 5.0 2.0 15 46
- 2.260021 1 2 ack 40 ------- 1 5.0 2.0 15 46
r 2.261008 5 4 ack 40 ------- 1 5.0 2.0 19 50
+ 2.261008 4 1 ack 40 ------- 1 5.0 2.0 19 50
- 2.261008 4 1 ack 40 ------- 1 5.0 2.0 19 50
r 2.261035 1 4 tcp 1040 ------- 1 2.0 5.0 27 42
+ 2.261035 4 5 tcp 1040 ------- 1 2.0 5.0 27 42
- 2.261035 4 5 tcp 1040 ------- 1 2.0 5.0 27 42
r 2.262021 4 5 tcp 1040 ------- 1 2.0 5.0 23 38
+ 2.262021 5 4 ack 40 ------- 1 5.0 2.0 23 54
- 2.262021 5 4 ack 40 ------- 1 5.0 2.0 23 54
r 2.262795 4 1 ack 40 ------- 1 5.0 2.0 16 47
+ 2.262795 1 2 ack 40 ------- 1 5.0 2.0 16 47
- 2.262795 1 2 ack 40 ------- 1 5.0 2.0 16 47
r 2.263781 5 4 ack 40 ------- 1 5.0 2.0 20 51
+ 2.263781 4 1 ack 40 ------- 1 5.0 2.0 20 51
- 2.263781 4 1 ack 40 ------- 1 5.0 2.0 20 51
r 2.263808 1 4 tcp 1040 ------- 1 2.0 5.0 28 43
+ 2.263808 4 5 tcp 1040 ------- 1 2.0 5.0 28 43
- 2.263808 4 5 tcp 1040 ------- 1 2.0 5.0 28 43
r 2.264053 1 2 ack 40 ------- 1 5.0 2.0 15 46
+ 2.264053 2 1 tcp 1040 ------- 1 2.0 5.0 31 55
- 2.264053 2 1 tcp 1040 ------- 1 2.0 5.0 31 55
+ 2.264053 2 1 tcp 1040 ------- 1 2.0 5.0 32 56
r 2.264795 4 5 tcp 1040 ------- 1 2.0 5.0 24 39
+ 2.264795 5 4 ack 40 ------- 1 5.0 2.0 24 57
- 2.264795 5 4 ack 40 ------- 1 5.0 2.0 24 57
- 2.264885 2 1 tcp 1040 ------- 1 2.0 5.0 32 56
r 2.265568 4 1 ack 40 ------- 1 5.0 2.0 17 48
+ 2.265568 1 2 ack 40 ------- 1 5.0 2.0 17 48
- 2.265568 1 2 ack 40 ------- 1 5.0 2.0 17 48
r 2.266555 5 4 ack 40 ------- 1 5.0 2.0 21 52
+ 2.266555 4 1 ack 40 ------- 1 5.0 2.0 21 52
- 2.266555 4 1 ack 40 ------- 1 5.0 2.0 21 52
r 2.266581 1 4 tcp 1040 ------- 1 2.0 5.0 29 44
+ 2.266581 4 5 tcp 1040 ------- 1 2.0 5.0 29 44
- 2.266581 4 5 tcp 1040 ------- 1 2.0 5.0 29 44
r 2.266827 1 2 ack 40 ------- 1 5.0 2.0 16 47
+ 2.266827 2 1 tcp 1040 ------- 1 2.0 5.0 33 58
- 2.266827 2 1 tcp 1040 ------- 1 2.0 5.0 33 58
+ 2.266827 2 1 tcp 1040 ------- 1 2.0 5.0 34 59
r 2.267568 4 5 tcp 1040 ------- 1 2.0 5.0 25 40
+ 2.267568 5 4 ack 40 ------- 1 5.0 2.0 25 60
- 2.267568 5 4 ack 40 ------- 1 5.0 2.0 25 60
- 2.267659 2 1 tcp 1040 ------- 1 2.0 5.0 34 59
r 2.268341 4 1 ack 40 ------- 1 5.0 2.0 18 49
+ 2.268341 1 2 ack 40 ------- 1 5.0 2.0 18 49
- 2.268341 1 2 ack 40 ------- 1 5.0 2.0 18 49
r 2.268885 2 1 tcp 1040 ------- 1 2.0 5.0 31 55
+ 2.268885 1 4 tcp 1040 ------- 1 2.0 5.0 31 55
- 2.268885 1 4 tcp 1040 ------- 1 2.0 5.0 31 55
r 2.269328 5 4 ack 40 ------- 1 5.0 2.0 22 53
+ 2.269328 4 1 ack 40 ------- 1 5.0 2.0 22 53
- 2.269328 4 1 ack 40 ------- 1 5.0 2.0 22 53
r 2.269355 1 4 tcp 1040 ------- 1 2.0 5.0 30 45
+ 2.269355 4 5 tcp 1040 ------- 1 2.0 5.0 30 45
- 2.269355 4 5 tcp 1040 ------- 1 2.0 5.0 30 45
r 2.2696 1 2 ack 40 ------- 1 5.0 2.0 17 48
+ 2.2696 2 1 tcp 1040 ------- 1 2.0 5.0 35 61
- 2.2696 2 1 tcp 1040 ------- 1 2.0 5.0 35 61
+ 2.2696 2 1 tcp 1040 ------- 1 2.0 5.0 36 62
r 2.269717 2 1 tcp 1040 ------- 1 2.0 5.0 32 56
+ 2.269717 1 4 tcp 1040 ------- 1 2.0 5.0 32 56
r 2.270341 4 5 tcp 1040 ------- 1 2.0 5.0 26 41
+ 2.270341 5 4 ack 40 ------- 1 5.0 2.0 26 63
- 2.270341 5 4 ack 40 ------- 1 5.0 2.0 26 63
- 2.270432 2 1 tcp 1040 ------- 1 2.0 5.0 36 62
r 2.271115 4 1 ack 40 ------- 1 5.0 2.0 19 50
+ 2.271115 1 2 ack 40 ------- 1 5.0 2.0 19 50
- 2.271115 1 2 ack 40 ------- 1 5.0 2.0 19 50
r 2.271659 2 1 tcp 1040 ------- 1 2.0 5.0 33 58
+ 2.271659 1 4 tcp 1040 ------- 1 2.0 5.0 33 58
- 2.271659 1 4 tcp 1040 ------- 1 2.0 5.0 32 56
r 2.272101 5 4 ack 40 ------- 1 5.0 2.0 23 54
+ 2.272101 4 1 ack 40 ------- 1 5.0 2.0 23 54
- 2.272101 4 1 ack 40 ------- 1 5.0 2.0 23 54
r 2.272373 1 2 ack 40 ------- 1 5.0 2.0 18 49
+ 2.272373 2 1 tcp 1040 ------- 1 2.0 5.0 37 64
- 2.272373 2 1 tcp 1040 ------- 1 2.0 5.0 37 64
+ 2.272373 2 1 tcp 1040 ------- 1 2.0 5.0 38 65
r 2.272491 2 1 tcp 1040 ------- 1 2.0 5.0 34 59
+ 2.272491 1 4 tcp 1040 ------- 1 2.0 5.0 34 59
r 2.273115 4 5 tcp 1040 ------- 1 2.0 5.0 27 42
+ 2.273115 5 4 ack 40 ------- 1 5.0 2.0 27 66
- 2.273115 5 4 ack 40 ------- 1 5.0 2.0 27 66
- 2.273205 2 1 tcp 1040 ------- 1 2.0 5.0 38 65
r 2.273888 4 1 ack 40 ------- 1 5.0 2.0 20 51
+ 2.273888 1 2 ack 40 ------- 1 5.0 2.0 20 51
- 2.273888 1 2 ack 40 ------- 1 5.0 2.0 20 51
r 2.274432 2 1 tcp 1040 ------- 1 2.0 5.0 35 61
+ 2.274432 1 4 tcp 1040 ------- 1 2.0 5.0 35 61
- 2.274432 1 4 tcp 1040 ------- 1 2.0 5.0 33 58
r 2.274875 5 4 ack 40 ------- 1 5.0 2.0 24 57
+ 2.274875 4 1 ack 40 ------- 1 5.0 2.0 24 57
- 2.274875 4 1 ack 40 ------- 1 5.0 2.0 24 57
r 2.275147 1 2 ack 40 ------- 1 5.0 2.0 19 50
+ 2.275147 2 1 tcp 1040 ------- 1 2.0 5.0 39 67
- 2.275147 2 1 tcp 1040 ------- 1 2.0 5.0 39 67
r 2.275264 2 1 tcp 1040 ------- 1 2.0 5.0 36 62
+ 2.275264 1 4 tcp 1040 ------- 1 2.0 5.0 36 62
r 2.275888 4 5 tcp 1040 ------- 1 2.0 5.0 28 43
+ 2.275888 5 4 ack 40 ------- 1 5.0 2.0 28 68
- 2.275888 5 4 ack 40 ------- 1 5.0 2.0 28 68
r 2.276661 4 1 ack 40 ------- 1 5.0 2.0 21 52
+ 2.276661 1 2 ack 40 ------- 1 5.0 2.0 21 52
- 2.276661 1 2 ack 40 ------- 1 5.0 2.0 21 52
r 2.277205 2 1 tcp 1040 ------- 1 2.0 5.0 37 64
+ 2.277205 1 4 tcp 1040 ------- 1 2.0 5.0 37 64
- 2.277205 1 4 tcp 1040 ------- 1 2.0 5.0 34 59
r 2.277648 5 4 ack 40 ------- 1 5.0 2.0 25 60
+ 2.277648 4 1 ack 40 ------- 1 5.0 2.0 25 60
- 2.277648 4 1 ack 40 ------- 1 5.0 2.0 25 60
r 2.27792 1 2 ack 40 ------- 1 5.0 2.0 20 51
+ 2.27792 2 1 tcp 1040 ------- 1 2.0 5.0 40 69
- 2.27792 2 1 tcp 1040 ------- 1 2.0 5.0 40 69
r 2.278037 2 1 tcp 1040 ------- 1 2.0 5.0 38 65
+ 2.278037 1 4 tcp 1040 ------- 1 2.0 5.0 38 65
r 2.278661 4 5 tcp 1040 ------- 1 2.0 5.0 29 44
+ 2.278661 5 4 ack 40 ------- 1 5.0 2.0 29 70
- 2.278661 5 4 ack 40 ------- 1 5.0 2.0 29 70
r 2.279435 4 1 ack 40 ------- 1 5.0 2.0 22 53
+ 2.279435 1 2 ack 40 ------- 1 5.0 2.0 22 53
- 2.279435 1 2 ack 40 ------- 1 5.0 2.0 22 53
r 2.279979 2 1 tcp 1040 ------- 1 2.0 5.0 39 67
+ 2.279979 1 4 tcp 1040 ------- 1 2.0 5.0 39 67
- 2.279979 1 4 tcp 1040 ------- 1 2.0 5.0 35 61
r 2.280421 5 4 ack 40 ------- 1 5.0 2.0 26 63
+ 2.280421 4 1 ack 40 ------- 1 5.0 2.0 26 63
- 2.280421 4 1 ack 40 ------- 1 5.0 2.0 26 63
r 2.280693 1 2 ack 40 ------- 1 5.0 2.0 21 52
+ 2.280693 2 1 tcp 1040 ------- 1 2.0 5.0 41 71
- 2.280693 2 1 tcp 1040 ------- 1 2.0 5.0 41 71
r 2.281435 4 5 tcp 1040 ------- 1 2.0 5.0 30 45
+ 2.281435 5 4 ack 40 ------- 1 5.0 2.0 30 72
- 2.281435 5 4 ack 40 ------- 1 5.0 2.0 30 72
r 2.281659 1 4 tcp 1040 ------- 1 2.0 5.0 31 55
+ 2.281659 4 5 tcp 1040 ------- 1 2.0 5.0 31 55
- 2.281659 4 5 tcp 1040 ------- 1 2.0 5.0 31 55
r 2.282208 4 1 ack 40 ------- 1 5.0 2.0 23 54
+ 2.282208 1 2 ack 40 ------- 1 5.0 2.0 23 54
- 2.282208 1 2 ack 40 ------- 1 5.0 2.0 23 54
r 2.282752 2 1 tcp 1040 ------- 1 2.0 5.0 40 69
+ 2.282752 1 4 tcp 1040 ------- 1 2.0 5.0 40 69
- 2.282752 1 4 tcp 1040 ------- 1 2.0 5.0 36 62
r 2.283195 5 4 ack 40 ------- 1 5.0 2.0 27 66
+ 2.283195 4 1 ack 40 ------- 1 5.0 2.0 27 66
- 2.283195 4 1 ack 40 ------- 1 5.0 2.0 27 66
r 2.283467 1 2 ack 40 ------- 1 5.0 2.0 22 53
+ 2.283467 2 1 tcp 1040 ------- 1 2.0 5.0 42 73
- 2.283467 2 1 tcp 1040 ------- 1 2.0 5.0 42 73
r 2.284432 1 4 tcp 1040 ------- 1 2.0 5.0 32 56
+ 2.284432 4 5 tcp 1040 ------- 1 2.0 5.0 32 56
- 2.284432 4 5 tcp 1040 ------- 1 2.0 5.0 32 56
r 2.284981 4 1 ack 40 ------- 1 5.0 2.0 24 57
+ 2.284981 1 2 ack 40 ------- 1 5.0 2.0 24 57
- 2.284981 1 2 ack 40 ------- 1 5.0 2.0 24 57
r 2.285525 2 1 tcp 1040 ------- 1 2.0 5.0 41 71
+ 2.285525 1 4 tcp 1040 ------- 1 2.0 5.0 41 71
- 2.285525 1 4 tcp 1040 ------- 1 2.0 5.0 37 64
r 2.285968 5 4 ack 40 ------- 1 5.0 2.0 28 68
+ 2.285968 4 1 ack 40 ------- 1 5.0 2.0 28 68
- 2.285968 4 1 ack 40 ------- 1 5.0 2.0 28 68
r 2.28624 1 2 ack 40 ------- 1 5.0 2.0 23 54
+ 2.28624 2 1 tcp 1040 ------- 1 2.0 5.0 43 74
- 2.28624 2 1 tcp 1040 ------- 1 2.0 5.0 43 74
r 2.287205 1 4 tcp 1040 ------- 1 2.0 5.0 33 58
+ 2.287205 4 5 tcp 1040 ------- 1 2.0 5.0 33 58
- 2.287205 4 5 tcp 1040 ------- 1 2.0 5.0 33 58
r 2.287755 4 1 ack 40 ------- 1 5.0 2.0 25 60
+ 2.287755 1 2 ack 40 ------- 1 5.0 2.0 25 60
- 2.287755 1 2 ack 40 ------- 1 5.0 2.0 25 60
r 2.288299 2 1 tcp 1040 ------- 1 2.0 5.0 42 73
+ 2.288299 1 4 tcp 1040 ------- 1 2.0 5.0 42 73
- 2.288299 1 4 tcp 1040 ------- 1 2.0 5.0 38 65
r 2.288741 5 4 ack 40 ------- 1 5.0 2.0 29 70
+ 2.288741 4 1 ack 40 ------- 1 5.0 2.0 29 70
- 2.288741 4 1 ack 40 ------- 1 5.0 2.0 29 70
r 2.289013 1 2 ack 40 ------- 1 5.0 2.0 24 57
+ 2.289013 2 1 tcp 1040 ------- 1 2.0 5.0 44 75
- 2.289013 2 1 tcp 1040 ------- 1 2.0 5.0 44 75
r 2.289979 1 4 tcp 1040 ------- 1 2.0 5.0 34 59
+ 2.289979 4 5 tcp 1040 ------- 1 2.0 5.0 34 59
- 2.289979 4 5 tcp 1040 ------- 1 2.0 5.0 34 59
r 2.290528 4 1 ack 40 ------- 1 5.0 2.0 26 63
+ 2.290528 1 2 ack 40 ------- 1 5.0 2.0 26 63
- 2.290528 1 2 ack 40 ------- 1 5.0 2.0 26 63
r 2.291072 2 1 tcp 1040 ------- 1 2.0 5.0 43 74
+ 2.291072 1 4 tcp 1040 ------- 1 2.0 5.0 43 74
- 2.291072 1 4 tcp 1040 ------- 1 2.0 5.0 39 67
r 2.291515 5 4 ack 40 ------- 1 5.0 2.0 30 72
+ 2.291515 4 1 ack 40 ------- 1 5.0 2.0 30 72
- 2.291515 4 1 ack 40 ------- 1 5.0 2.0 30 72
r 2.291787 1 2 ack 40 ------- 1 5.0 2.0 25 60
+ 2.291787 2 1 tcp 1040 ------- 1 2.0 5.0 45 76
- 2.291787 2 1 tcp 1040 ------- 1 2.0 5.0 45 76
r 2.292752 1 4 tcp 1040 ------- 1 2.0 5.0 35 61
+ 2.292752 4 5 tcp 1040 ------- 1 2.0 5.0 35 61
- 2.292752 4 5 tcp 1040 ------- 1 2.0 5.0 35 61
r 2.293301 4 1 ack 40 ------- 1 5.0 2.0 27 66
+ 2.293301 1 2 ack 40 ------- 1 5.0 2.0 27 66
- 2.293301 1 2 ack 40 ------- 1 5.0 2.0 27 66
r 2.293739 4 5 tcp 1040 ------- 1 2.0 5.0 31 55
+ 2.293739 5 4 ack 40 ------- 1 5.0 2.0 31 77
- 2.293739 5 4 ack 40 ------- 1 5.0 2.0 31 77
r 2.293845 2 1 tcp 1040 ------- 1 2.0 5.0 44 75
+ 2.293845 1 4 tcp 1040 ------- 1 2.0 5.0 44 75
- 2.293845 1 4 tcp 1040 ------- 1 2.0 5.0 40 69
r 2.29456 1 2 ack 40 ------- 1 5.0 2.0 26 63
+ 2.29456 2 1 tcp 1040 ------- 1 2.0 5.0 46 78
- 2.29456 2 1 tcp 1040 ------- 1 2.0 5.0 46 78
r 2.295525 1 4 tcp 1040 ------- 1 2.0 5.0 36 62
+ 2.295525 4 5 tcp 1040 ------- 1 2.0 5.0 36 62
- 2.295525 4 5 tcp 1040 ------- 1 2.0 5.0 36 62
r 2.296075 4 1 ack 40 ------- 1 5.0 2.0 28 68
+ 2.296075 1 2 ack 40 ------- 1 5.0 2.0 28 68
- 2.296075 1 2 ack 40 ------- 1 5.0 2.0 28 68
r 2.296512 4 5 tcp 1040 ------- 1 2.0 5.0 32 56
+ 2.296512 5 4 ack 40 ------- 1 5.0 2.0 32 79
- 2.296512 5 4 ack 40 ------- 1 5.0 2.0 32 79
r 2.296619 2 1 tcp 1040 ------- 1 2.0 5.0 45 76